 Gaussian 09, Revision B.01,
 Gaussian 09:  EM64L-G09RevB.01 12-Aug-2010

 -----------------
 # b3lyp/6-31+g(d)
 -----------------

 -----
 ATZ+1
 -----
 Symbolic Z-matrix:
 Charge =  1 Multiplicity = 2

                         Standard orientation:
 ---------------------------------------------------------------------
 Center     Atomic      Atomic             Coordinates (Angstroms)
 Number     Number       Type             X           Y           Z
 ---------------------------------------------------------------------
      1          6           0        0.779364    0.198182   -0.000062
      2          6           0       -1.205174    1.173681    0.000230
      3          6           0       -1.646351   -0.121379    0.000139
      4         16           0       -0.289161   -1.197602   -0.000315
      5          1           0       -1.845269    2.048740    0.000460
      6          1           0       -2.666237   -0.482880    0.000470
      7          7           0        0.160841    1.346491    0.000226
      8          7           0        2.176275   -0.019409   -0.000893
      9          1           0        2.606059    0.409692   -0.818647
     10          1           0        2.605180    0.393606    0.825573
 ---------------------------------------------------------------------

 SCF Done:  E(UB3LYP) =  -624.074863792     A.U. after   23 cycles

 The electronic state is 2-A.
 Alpha  occ. eigenvalues --  -89.16411 -14.57472 -14.54621 -10.54160 -10.49743
 Alpha  occ. eigenvalues --  -10.49672  -8.22325  -6.18664  -6.18282  -6.18196
 Alpha  occ. eigenvalues --   -1.22653  -1.11375  -1.04991  -0.98193  -0.83769
 Alpha  occ. eigenvalues --   -0.80433  -0.75014  -0.71924  -0.68861  -0.66039
 Alpha  occ. eigenvalues --   -0.64841  -0.60576  -0.52562  -0.51036  -0.50745
 Alpha  occ. eigenvalues --   -0.47672
 Alpha virt. eigenvalues --   -0.27986  -0.20746  -0.20695  -0.15948  -0.14420
 Alpha virt. eigenvalues --   -0.12073  -0.10691  -0.10009  -0.10001  -0.07011
 Alpha virt. eigenvalues --   -0.06959  -0.05878  -0.05307  -0.03538  -0.02803

  Beta  occ. eigenvalues --  -89.16371 -14.57622 -14.54618 -10.53637 -10.49230
  Beta  occ. eigenvalues --  -10.49163  -8.22285  -6.18660  -6.18279  -6.18025
  Beta  occ. eigenvalues --   -1.21944  -1.10887  -1.04382  -0.96583  -0.82969
  Beta  occ. eigenvalues --   -0.79679  -0.74602  -0.70745  -0.68514  -0.65656
  Beta  occ. eigenvalues --   -0.62149  -0.60158  -0.51543  -0.50789  -0.47627
  Beta virt. eigenvalues --   -0.41964  -0.24495  -0.20272  -0.18046  -0.15713
  Beta virt. eigenvalues --   -0.14172  -0.11819  -0.10590  -0.09812  -0.09797
  Beta virt. eigenvalues --   -0.06921  -0.06764  -0.05631  -0.05084  -0.03456

 Mulliken atomic charges:
              1
     1  C   -0.166953
     2  C   -0.109020
     3  C   -0.099857
     4  S    0.631714
     5  H    0.289532
     6  H    0.315318
     7  N   -0.017857
     8  N   -0.741095
     9  H    0.448523
    10  H    0.449695
 Sum of Mulliken atomic charges =   1.00000

 Dipole moment (field-independent basis, Debye):
    X=             -2.1506    Y=              0.6577    Z=              0.0146  Tot=              2.2489
 Quadrupole moment (field-independent basis, Debye-Ang):
   XX=            -19.0046   YY=            -36.8554   ZZ=            -37.4826
   XY=              1.0579   XZ=              0.0416   YZ=             -0.0230

 Normal termination of Gaussian 09 at Sun Jul 12 22:30:21 2020.
