 Gaussian 09, Revision B.01,
 Gaussian 09:  EM64L-G09RevB.01 12-Aug-2010

 -----------------
 # b3lyp/6-31+g(d)
 -----------------

 -----
 ATZ-1
 -----
 Symbolic Z-matrix:
 Charge = -1 Multiplicity = 2

                         Standard orientation:
 ---------------------------------------------------------------------
 Center     Atomic      Atomic             Coordinates (Angstroms)
 Number     Number       Type             X           Y           Z
 ---------------------------------------------------------------------
      1          6           0        0.779364    0.198182   -0.000062
      2          6           0       -1.205174    1.173681    0.000230
      3          6           0       -1.646351   -0.121379    0.000139
      4         16           0       -0.289161   -1.197602   -0.000315
      5          1           0       -1.845269    2.048740    0.000460
      6          1           0       -2.666237   -0.482880    0.000470
      7          7           0        0.160841    1.346491    0.000226
      8          7           0        2.176275   -0.019409   -0.000893
      9          1           0        2.606059    0.409692   -0.818647
     10          1           0        2.605180    0.393606    0.825573
 ---------------------------------------------------------------------

 SCF Done:  E(UB3LYP) =  -624.373639251     A.U. after   32 cycles

 The electronic state is 2-A.
 Alpha  occ. eigenvalues --  -88.70527 -14.17536 -14.13238 -10.04214 -10.02115
 Alpha  occ. eigenvalues --  -10.00328  -7.76572  -5.72970  -5.72654  -5.72314
 Alpha  occ. eigenvalues --   -0.77334  -0.70724  -0.59320  -0.52611  -0.39180
 Alpha  occ. eigenvalues --   -0.37917  -0.33766  -0.30813  -0.25793  -0.22222
 Alpha  occ. eigenvalues --   -0.20471  -0.16635  -0.10263  -0.09101  -0.08391
 Alpha  occ. eigenvalues --   -0.05805   0.10779
 Alpha virt. eigenvalues --    0.12844   0.14237   0.15672   0.17420   0.18754
 Alpha virt. eigenvalues --    0.19048   0.19940   0.20088   0.21650   0.21972
 Alpha virt. eigenvalues --    0.22332   0.22645   0.25549   0.26555   0.27380

  Beta  occ. eigenvalues --  -88.70464 -14.17602 -14.13206 -10.03464 -10.02088
  Beta  occ. eigenvalues --   -9.99885  -7.76511  -5.72956  -5.72638  -5.72067
  Beta  occ. eigenvalues --   -0.76732  -0.70522  -0.58804  -0.51974  -0.38434
  Beta  occ. eigenvalues --   -0.37277  -0.33159  -0.30487  -0.25554  -0.21878
  Beta  occ. eigenvalues --   -0.18946  -0.16114  -0.10279  -0.08218  -0.07612
  Beta  occ. eigenvalues --   -0.03110
  Beta virt. eigenvalues --    0.12904   0.14222   0.15596   0.17349   0.17690
  Beta virt. eigenvalues --    0.18781   0.19594   0.20056   0.20380   0.21907
  Beta virt. eigenvalues --    0.22205   0.22343   0.23408   0.25620   0.26613

 Mulliken atomic charges:
              1
     1  C   -0.256267
     2  C   -0.287381
     3  C   -0.357498
     4  S    0.025191
     5  H    0.119715
     6  H    0.147436
     7  N   -0.243193
     8  N   -0.846425
     9  H    0.349180
    10  H    0.349244
 Sum of Mulliken atomic charges =  -1.00000

 Dipole moment (field-independent basis, Debye):
    X=              0.7289    Y=              0.2331    Z=              0.0238  Tot=              0.7656
 Quadrupole moment (field-independent basis, Debye-Ang):
   XX=            -51.0186   YY=            -60.0969   ZZ=            -50.9758
   XY=              2.5236   XZ=              0.0621   YZ=             -0.0164

 Normal termination of Gaussian 09 at Sun Jul 12 22:30:50 2020.
