 Gaussian 09, Revision B.01,
 Gaussian 09:  EM64L-G09RevB.01 12-Aug-2010

 ----------------------------------
 # opt freq=noraman b3lyp/6-31+g(d)
 ----------------------------------

 ---
 ATZ
 ---
 Symbolic Z-matrix:
 Charge =  0 Multiplicity = 1

 SCF Done:  E(RB3LYP) =  -624.408232258     A.U. after   13 cycles
 SCF Done:  E(RB3LYP) =  -624.410771669     A.U. after   14 cycles
 SCF Done:  E(RB3LYP) =  -624.410980395     A.U. after   14 cycles
 SCF Done:  E(RB3LYP) =  -624.410994625     A.U. after   14 cycles
 SCF Done:  E(RB3LYP) =  -624.410996846     A.U. after    9 cycles
 SCF Done:  E(RB3LYP) =  -624.410997641     A.U. after    9 cycles
 SCF Done:  E(RB3LYP) =  -624.410998111     A.U. after    9 cycles
 SCF Done:  E(RB3LYP) =  -624.410998685     A.U. after    9 cycles
 SCF Done:  E(RB3LYP) =  -624.393348547     A.U. after   13 cycles
 SCF Done:  E(RB3LYP) =  -624.410998865     A.U. after   12 cycles
 SCF Done:  E(RB3LYP) =  -624.414216617     A.U. after   12 cycles
 SCF Done:  E(RB3LYP) =  -624.415071314     A.U. after   12 cycles
 SCF Done:  E(RB3LYP) =  -624.415789015     A.U. after   11 cycles
 SCF Done:  E(RB3LYP) =  -624.417208655     A.U. after   11 cycles
 SCF Done:  E(RB3LYP) =  -624.418377489     A.U. after   11 cycles
 SCF Done:  E(RB3LYP) =  -624.418714199     A.U. after   11 cycles
 SCF Done:  E(RB3LYP) =  -624.418737103     A.U. after   10 cycles
 SCF Done:  E(RB3LYP) =  -624.418749196     A.U. after   10 cycles
 SCF Done:  E(RB3LYP) =  -624.418751513     A.U. after    9 cycles
 Optimization completed.
    -- Stationary point found.
 Normal termination of Gaussian 09 at Fri Jul 17 10:06:01 2020.

 ---------------------------------------------------------------------
 #N Geom=AllCheck Guess=TCheck SCRF=Check GenChk RB3LYP/6-31+G(d) Freq
 ---------------------------------------------------------------------

 ATZ
 ---
 Redundant internal coordinates taken from checkpoint file:
 ATZ.chk
 Charge =  0 Multiplicity = 1

                         Standard orientation:
 ---------------------------------------------------------------------
 Center     Atomic      Atomic             Coordinates (Angstroms)
 Number     Number       Type             X           Y           Z
 ---------------------------------------------------------------------
      1          6           0        0.779662    0.211569    0.001711
      2          6           0       -1.211446    1.164509    0.003609
      3          6           0       -1.647918   -0.125100    0.008528
      4         16           0       -0.272912   -1.208867   -0.007103
      5          1           0       -1.858278    2.034672    0.009126
      6          1           0       -2.660178   -0.504491    0.025734
      7          7           0        0.156322    1.356291    0.003530
      8          7           0        2.151852    0.083819   -0.075493
      9          1           0        2.642267    0.948911    0.124554
     10          1           0        2.563765   -0.723869    0.374888
 ---------------------------------------------------------------------

 SCF Done:  E(RB3LYP) =  -624.418751513     A.U. after    1 cycles

 The electronic state is 1-A.
 Alpha  occ. eigenvalues --  -88.91921 -14.37388 -14.33382 -10.29390 -10.22413
 Alpha  occ. eigenvalues --  -10.21893  -7.97982  -5.94402  -5.94060  -5.93636
 Alpha  occ. eigenvalues --   -0.98593  -0.91277  -0.80029  -0.72952  -0.60571
 Alpha  occ. eigenvalues --   -0.58551  -0.52848  -0.50713  -0.45673  -0.42512
 Alpha  occ. eigenvalues --   -0.41342  -0.36848  -0.33053  -0.28384  -0.28328
 Alpha  occ. eigenvalues --   -0.22132
 Alpha virt. eigenvalues --   -0.02035  -0.01134  -0.00031   0.02103   0.03500
 Alpha virt. eigenvalues --    0.04401   0.04663   0.05671   0.06002   0.07414
 Alpha virt. eigenvalues --    0.09057   0.09198   0.09335   0.10244   0.12222

 Mulliken atomic charges:
              1
     1  C   -0.005716
     2  C   -0.213242
     3  C   -0.275434
     4  S    0.272137
     5  H    0.188365
     6  H    0.217770
     7  N   -0.257243
     8  N   -0.701131
     9  H    0.398913
    10  H    0.375580
 Sum of Mulliken atomic charges =   0.00000

 Dipole moment (field-independent basis, Debye):
    X=              0.7525    Y=             -1.1893    Z=              1.0016  Tot=              1.7274
 Quadrupole moment (field-independent basis, Debye-Ang):
   XX=            -32.1629   YY=            -43.9903   ZZ=            -46.0015
   XY=             -1.2398   XZ=              2.9656   YZ=             -0.3851

  Exact polarizability:  82.678   0.506  74.497  -0.358  -0.037  42.667
 Approx polarizability: 127.990   4.122 132.317  -1.178   0.012  61.490

                     1                      2                      3
                     A                      A                      A
 Frequencies --   250.1908               291.8866               366.5461
 Red. masses --     4.3646                 1.1074                 3.9720
 Frc consts  --     0.1610                 0.0556                 0.3144
 IR Inten    --    11.2616                31.9563                 1.0986

                     4                      5                      6
                     A                      A                      A
 Frequencies --   510.5470               558.6950               585.9235
 Red. masses --     2.8545                 3.5375                 2.9799
 Frc consts  --     0.4384                 0.6506                 0.6027
 IR Inten    --    87.8199                65.0447                24.4603

                     7                      8                      9
                     A                      A                      A
 Frequencies --   644.9316               652.7412               696.1455
 Red. masses --     2.0341                 4.9259                 1.5485
 Frc consts  --     0.4985                 1.2366                 0.4421
 IR Inten    --   200.2989                13.5445                20.9693

                    10                     11                     12
                     A                      A                      A
 Frequencies --   754.1469               876.3764               890.7760
 Red. masses --     7.2295                 4.6955                 1.3164
 Frc consts  --     2.4226                 2.1248                 0.6154
 IR Inten    --    10.3917                 2.0962                 4.1158

                    13                     14                     15
                     A                      A                      A
 Frequencies --  1055.9421              1102.3079              1244.1810
 Red. masses --     2.0566                 1.2329                 1.8508
 Frc consts  --     1.3511                 0.8826                 1.6880
 IR Inten    --    48.2630                 4.4457                20.5004

                    16                     17                     18
                     A                      A                      A
 Frequencies --  1304.2426              1359.1146              1532.8506
 Red. masses --     2.7359                 2.2056                 5.1577
 Frc consts  --     2.7420                 2.4004                 7.1401
 IR Inten    --    53.6613                48.9788                76.9218

                    19                     20                     21
                     A                      A                      A
 Frequencies --  1582.2619              1673.0028              3234.0705
 Red. masses --     4.5626                 1.2599                 1.0907
 Frc consts  --     6.7300                 2.0777                 6.7215
 IR Inten    --   129.6908               152.0198                 8.0138

                    22                     23                     24
                     A                      A                      A
 Frequencies --  3281.1812              3551.1661              3658.6396
 Red. masses --     1.0982                 1.0477                 1.0996
 Frc consts  --     6.9659                 7.7845                 8.6720
 IR Inten    --     1.3156                37.7069                32.5339

 - Thermochemistry -
 -------------------
 Temperature   298.150 Kelvin.  Pressure   1.00000 Atm.
 Atom     1 has atomic number  6 and mass  12.00000

 Molecular mass:   100.00952 amu.
 Principal axes and moments of inertia in atomic units:
                           1         2         3
     Eigenvalues --   341.33876 534.30393 874.01440
           X            0.99944  -0.03244   0.00806
           Y            0.03246   0.99947  -0.00159
           Z           -0.00801   0.00185   0.99997
 This molecule is an asymmetric top.
 Rotational symmetry number  1.
 Rotational temperatures (Kelvin)      0.25375     0.16211     0.09910
 Rotational constants (GHZ):           5.28724     3.37774     2.06489
 Zero-point vibrational energy     189356.1 (Joules/Mol)
                                   45.25719 (Kcal/Mol)
 Warning -- explicit consideration of   6 degrees of freedom as
           vibrations may cause significant error
 Vibrational temperatures:    359.97   419.96   527.38   734.56   803.84
          (Kelvin)            843.01   927.91   939.15  1001.60  1085.05
                             1260.91  1281.63  1519.26  1585.97  1790.10
                             1876.51  1955.46  2205.43  2276.52  2407.07
                             4653.10  4720.88  5109.33  5263.96

 Zero-point correction=                           0.072122 (Hartree/Particle)
 Thermal correction to Energy=                    0.077473
 Thermal correction to Enthalpy=                  0.078417
 Thermal correction to Gibbs Free Energy=         0.043232
 Sum of electronic and zero-point Energies=           -624.346630
 Sum of electronic and thermal Energies=              -624.341278
 Sum of electronic and thermal Enthalpies=            -624.340334
 Sum of electronic and thermal Free Energies=         -624.375519

                     E (Thermal)             CV                S
                      KCal/Mol        Cal/Mol-Kelvin    Cal/Mol-Kelvin
 Total                   48.615             20.042             74.053
 Electronic               0.000              0.000              0.000
 Translational            0.889              2.981             39.718
 Rotational               0.889              2.981             26.569
 Vibrational             46.838             14.080              7.766
 Vibration     1          0.663              1.762              1.729
 Vibration     2          0.687              1.689              1.463
 Vibration     3          0.739              1.541              1.094
 Vibration     4          0.866              1.227              0.632
 Vibration     5          0.914              1.121              0.526
 Vibration     6          0.943              1.062              0.475

 Normal termination of Gaussian 09 at Fri Jul 17 10:06:35 2020.
