 Gaussian 09, Revision B.01,
 Gaussian 09:  EM64L-G09RevB.01 12-Aug-2010

 -------------------------
 # b3lyp/6-31+g(d) pop=nbo
 -------------------------

 -----
 ATZ+1
 -----
 Symbolic Z-matrix:
 Charge =  1 Multiplicity = 2

                         Standard orientation:
 ---------------------------------------------------------------------
 Center     Atomic      Atomic             Coordinates (Angstroms)
 Number     Number       Type             X           Y           Z
 ---------------------------------------------------------------------
      1          6           0        0.779813    0.211567    0.001781
      2          6           0       -1.211308    1.164614    0.003329
      3          6           0       -1.648098   -0.124763    0.008569
      4         16           0       -0.272995   -1.209050   -0.006852
      5          1           0       -1.858035    2.034910    0.008629
      6          1           0       -2.660250   -0.504390    0.025868
      7          7           0        0.156324    1.356215    0.003751
      8          7           0        2.152024    0.083879   -0.076106
      9          1           0        2.641637    0.948989    0.125364
     10          1           0        2.563692   -0.723881    0.374182
 ---------------------------------------------------------------------

 SCF Done:  E(UB3LYP) =  -624.117141688     A.U. after   18 cycles

 The electronic state is 2-A.
 Alpha  occ. eigenvalues --  -89.14628 -14.62127 -14.56704 -10.53079 -10.47089
 Alpha  occ. eigenvalues --  -10.46408  -8.20566  -6.16963  -6.16582  -6.16325
 Alpha  occ. eigenvalues --   -1.22252  -1.14889  -1.03291  -0.96639  -0.83489
 Alpha  occ. eigenvalues --   -0.81271  -0.75105  -0.73403  -0.68438  -0.66033
 Alpha  occ. eigenvalues --   -0.63714  -0.58851  -0.57542  -0.50791  -0.50193
 Alpha  occ. eigenvalues --   -0.46498
 Alpha virt. eigenvalues --   -0.24839  -0.20826  -0.17968  -0.16423  -0.13434
 Alpha virt. eigenvalues --   -0.11786  -0.10333  -0.10050  -0.08997  -0.08390
 Alpha virt. eigenvalues --   -0.05915  -0.05609  -0.05455  -0.04566  -0.03009

  Beta  occ. eigenvalues --  -89.14589 -14.61465 -14.56521 -10.52932 -10.46544
  Beta  occ. eigenvalues --  -10.46215  -8.20528  -6.16953  -6.16575  -6.16169
  Beta  occ. eigenvalues --   -1.21429  -1.13760  -1.02498  -0.95445  -0.82814
  Beta  occ. eigenvalues --   -0.80780  -0.74628  -0.72939  -0.67893  -0.63996
  Beta  occ. eigenvalues --   -0.63367  -0.58507  -0.53276  -0.49910  -0.49461
  Beta virt. eigenvalues --   -0.38275  -0.22281  -0.20487  -0.16185  -0.15798
  Beta virt. eigenvalues --   -0.13248  -0.11565  -0.10240  -0.09887  -0.08800
  Beta virt. eigenvalues --   -0.08229  -0.05749  -0.05319  -0.05233  -0.04470

 Mulliken atomic charges:
              1
     1  C    0.001436
     2  C   -0.167041
     3  C   -0.115802
     4  S    0.484261
     5  H    0.275921
     6  H    0.305692
     7  N   -0.129073
     8  N   -0.545761
     9  H    0.456355
    10  H    0.434011
 Sum of Mulliken atomic charges =   1.00000

 Dipole moment (field-independent basis, Debye):
    X=              0.6266    Y=             -0.6742    Z=              0.9148  Tot=              1.2977
 Quadrupole moment (field-independent basis, Debye-Ang):
   XX=            -14.2374   YY=            -35.1005   ZZ=            -40.9895
   XY=             -1.8937   XZ=              2.6048   YZ=             -0.3462

 Summary of Natural Population Analysis:

                                       Natural Population
                Natural  -----------------------------------------------
    Atom  No    Charge         Core      Valence    Rydberg      Total
 -----------------------------------------------------------------------
      C    1    0.17981      0.99965     1.80268    0.01786     2.82019
      C    2    0.08749      0.99955     1.90074    0.01222     2.91251
      C    3    0.02127      0.99954     1.97064    0.00854     2.97873
      S    4    0.30457      4.99947     2.67826    0.01770     7.69543
      H    5    0.14531      0.00000     0.35452    0.00017     0.35469
      H    6    0.15170      0.00000     0.34801    0.00029     0.34830
      N    7   -0.16931      0.99965     2.65529    0.01436     3.66931
      N    8   -0.17972      0.99968     2.67275    0.00729     3.67972
      H    9    0.23060      0.00000     0.26839    0.00101     0.26940
      H   10    0.22828      0.00000     0.27144    0.00028     0.27172
 =======================================================================
   * Total *    1.00000      9.99754    14.92274    0.07972    25.00000

 Normal termination of Gaussian 09 at Wed Mar 14 21:56:40 2001.
