 Gaussian 09, Revision B.01,
 Gaussian 09:  EM64L-G09RevB.01 12-Aug-2010

 ------------------------------------------
 # opt freq=noraman b3lyp/6-31+g(d) pop=nbo
 ------------------------------------------

 ---
 ATZ
 ---
 Symbolic Z-matrix:
 Charge =  0 Multiplicity = 1

 SCF Done:  E(RB3LYP) =  -624.418751512     A.U. after   13 cycles
 SCF Done:  E(RB3LYP) =  -624.418751660     A.U. after    8 cycles
 SCF Done:  E(RB3LYP) =  -624.418751742     A.U. after    8 cycles
 Optimization completed.
    -- Stationary point found.
 Normal termination of Gaussian 09 at Wed Mar 14 05:45:33 2001.

 ---------------------------------------------------------------------
 #N Geom=AllCheck Guess=TCheck SCRF=Check GenChk RB3LYP/6-31+G(d) Freq
 ---------------------------------------------------------------------

 ATZ
 ---
 Redundant internal coordinates taken from checkpoint file:
 ATZ.chk
 Charge =  0 Multiplicity = 1

                         Standard orientation:
 ---------------------------------------------------------------------
 Center     Atomic      Atomic             Coordinates (Angstroms)
 Number     Number       Type             X           Y           Z
 ---------------------------------------------------------------------
      1          6           0        0.779813    0.211567    0.001781
      2          6           0       -1.211308    1.164614    0.003329
      3          6           0       -1.648098   -0.124763    0.008569
      4         16           0       -0.272995   -1.209050   -0.006852
      5          1           0       -1.858035    2.034910    0.008629
      6          1           0       -2.660250   -0.504390    0.025868
      7          7           0        0.156324    1.356215    0.003751
      8          7           0        2.152024    0.083879   -0.076106
      9          1           0        2.641637    0.948989    0.125364
     10          1           0        2.563692   -0.723881    0.374182
 ---------------------------------------------------------------------

 SCF Done:  E(RB3LYP) =  -624.418751742     A.U. after    1 cycles

 The electronic state is 1-A.
 Alpha  occ. eigenvalues --  -88.91921 -14.37389 -14.33384 -10.29392 -10.22414
 Alpha  occ. eigenvalues --  -10.21896  -7.97980  -5.94401  -5.94059  -5.93634
 Alpha  occ. eigenvalues --   -0.98595  -0.91283  -0.80022  -0.72955  -0.60574
 Alpha  occ. eigenvalues --   -0.58546  -0.52852  -0.50715  -0.45676  -0.42509
 Alpha  occ. eigenvalues --   -0.41341  -0.36846  -0.33058  -0.28382  -0.28330
 Alpha  occ. eigenvalues --   -0.22136
 Alpha virt. eigenvalues --   -0.02037  -0.01139  -0.00033   0.02103   0.03499
 Alpha virt. eigenvalues --    0.04403   0.04662   0.05671   0.06003   0.07412
 Alpha virt. eigenvalues --    0.09055   0.09198   0.09336   0.10243   0.12219

 Mulliken atomic charges:
              1
     1  C   -0.005873
     2  C   -0.213288
     3  C   -0.275298
     4  S    0.271828
     5  H    0.188371
     6  H    0.217778
     7  N   -0.257080
     8  N   -0.700941
     9  H    0.398897
    10  H    0.375606
 Sum of Mulliken atomic charges =   0.00000

 Dipole moment (field-independent basis, Debye):
    X=              0.7510    Y=             -1.1884    Z=              1.0029  Tot=              1.7268
 Quadrupole moment (field-independent basis, Debye-Ang):
   XX=            -32.1694   YY=            -43.9892   ZZ=            -46.0029
   XY=             -1.2419   XZ=              2.9705   YZ=             -0.3835

  Exact polarizability:  82.682   0.507  74.505  -0.361  -0.040  42.668
 Approx polarizability: 128.017   4.123 132.334  -1.186   0.005  61.492

 Summary of Natural Population Analysis:

                                       Natural Population
                Natural  -----------------------------------------------
    Atom  No    Charge         Core      Valence    Rydberg      Total
 -----------------------------------------------------------------------
      C    1    0.22440      1.99931     3.73958    0.03672     5.77560
      C    2   -0.06121      1.99907     4.03577    0.02638     6.06121
      C    3   -0.49160      1.99906     4.47437    0.01817     6.49160
      S    4    0.36224      9.99897     5.59906    0.03973    15.63776
      H    5    0.24499      0.00000     0.75446    0.00055     0.75501
      H    6    0.26702      0.00000     0.73224    0.00073     0.73298
      N    7   -0.53300      1.99930     5.50327    0.03044     7.53300
      N    8   -0.86263      1.99945     5.84171    0.02147     7.86263
      H    9    0.42896      0.00000     0.56832    0.00271     0.57104
      H   10    0.42082      0.00000     0.57837    0.00081     0.57918
 =======================================================================
   * Total *    0.00000     19.99516    31.82714    0.17770    52.00000

                     1                      2                      3
                     A                      A                      A
 Frequencies --   250.0900               290.2411               366.3751
 Red. masses --     4.3429                 1.1078                 3.9722
 Frc consts  --     0.1600                 0.0550                 0.3142
 IR Inten    --    11.4427                31.7682                 1.0944

                     4                      5                      6
                     A                      A                      A
 Frequencies --   510.4233               558.7008               585.9211
 Red. masses --     2.8635                 3.5727                 2.9753
 Frc consts  --     0.4396                 0.6571                 0.6018
 IR Inten    --    87.2752                64.3986                24.4934

                     7                      8                      9
                     A                      A                      A
 Frequencies --   645.3609               652.3532               696.1577
 Red. masses --     2.0493                 4.7657                 1.5510
 Frc consts  --     0.5029                 1.1949                 0.4429
 IR Inten    --   198.9427                16.6945                20.7229

                    10                     11                     12
                     A                      A                      A
 Frequencies --   753.6716               876.1328               890.9804
 Red. masses --     7.2208                 4.6972                 1.3164
 Frc consts  --     2.4166                 2.1243                 0.6157
 IR Inten    --    10.4351                 2.0737                 4.1391

                    13                     14                     15
                     A                      A                      A
 Frequencies --  1055.9672              1102.2803              1244.4798
 Red. masses --     2.0568                 1.2328                 1.8472
 Frc consts  --     1.3513                 0.8825                 1.6855
 IR Inten    --    48.4203                 4.4177                20.5288

                    16                     17                     18
                     A                      A                      A
 Frequencies --  1304.2703              1359.1478              1533.2473
 Red. masses --     2.7408                 2.2054                 5.1624
 Frc consts  --     2.7470                 2.4003                 7.1504
 IR Inten    --    53.6760                48.7878                77.3033

                    19                     20                     21
                     A                      A                      A
 Frequencies --  1582.2621              1672.6988              3233.6614
 Red. masses --     4.5548                 1.2603                 1.0908
 Frc consts  --     6.7185                 2.0776                 6.7199
 IR Inten    --   129.0299               152.0153                 8.0355

                    22                     23                     24
                     A                      A                      A
 Frequencies --  3281.3398              3552.0828              3659.6605
 Red. masses --     1.0981                 1.0477                 1.0996
 Frc consts  --     6.9665                 7.7884                 8.6768
 IR Inten    --     1.3088                37.5361                32.4948

 - Thermochemistry -
 -------------------
 Temperature   298.150 Kelvin.  Pressure   1.00000 Atm.
 Atom     1 has atomic number  6 and mass  12.00000

 Molecular mass:   100.00952 amu.
 Principal axes and moments of inertia in atomic units:
                           1         2         3
     Eigenvalues --   341.39202 534.35564 874.11474
           X            0.99944  -0.03246   0.00817
           Y            0.03247   0.99947  -0.00149
           Z           -0.00811   0.00175   0.99997
 This molecule is an asymmetric top.
 Rotational symmetry number  1.
 Rotational temperatures (Kelvin)      0.25371     0.16209     0.09909
 Rotational constants (GHZ):           5.28642     3.37742     2.06465
 Zero-point vibrational energy     189353.9 (Joules/Mol)
                                   45.25668 (Kcal/Mol)
 Warning -- explicit consideration of   6 degrees of freedom as
           vibrations may cause significant error
 Vibrational temperatures:    359.82   417.59   527.13   734.38   803.84
          (Kelvin)            843.01   928.53   938.59  1001.61  1084.36
                             1260.56  1281.92  1519.30  1585.93  1790.53
                             1876.55  1955.51  2206.00  2276.52  2406.64
                             4652.51  4721.11  5110.65  5265.43

 Zero-point correction=                           0.072121 (Hartree/Particle)
 Thermal correction to Energy=                    0.077475
 Thermal correction to Enthalpy=                  0.078419
 Thermal correction to Gibbs Free Energy=         0.043228
 Sum of electronic and zero-point Energies=           -624.346631
 Sum of electronic and thermal Energies=              -624.341277
 Sum of electronic and thermal Enthalpies=            -624.340333
 Sum of electronic and thermal Free Energies=         -624.375523

                     E (Thermal)             CV                S
                      KCal/Mol        Cal/Mol-Kelvin    Cal/Mol-Kelvin
 Total                   48.616             20.046             74.065
 Electronic               0.000              0.000              0.000
 Translational            0.889              2.981             39.718
 Rotational               0.889              2.981             26.569
 Vibrational             46.839             14.085              7.777
 Vibration     1          0.663              1.763              1.730
 Vibration     2          0.686              1.692              1.473
 Vibration     3          0.739              1.541              1.095
 Vibration     4          0.866              1.227              0.633
 Vibration     5          0.914              1.121              0.526
 Vibration     6          0.943              1.062              0.475

 Optimization completed.
    -- Stationary point found.
 Normal termination of Gaussian 09 at Wed Mar 14 05:46:24 2001.
