 Gaussian 09, Revision B.01,
 Gaussian 09:  EM64L-G09RevB.01 12-Aug-2010

 -------------------------
 # b3lyp/6-31+g(d) pop=nbo
 -------------------------

 -----
 ATZ-1
 -----
 Symbolic Z-matrix:
 Charge = -1 Multiplicity = 2

                         Standard orientation:
 ---------------------------------------------------------------------
 Center     Atomic      Atomic             Coordinates (Angstroms)
 Number     Number       Type             X           Y           Z
 ---------------------------------------------------------------------
      1          6           0        0.779813    0.211567    0.001781
      2          6           0       -1.211308    1.164614    0.003329
      3          6           0       -1.648098   -0.124763    0.008569
      4         16           0       -0.272995   -1.209050   -0.006852
      5          1           0       -1.858035    2.034910    0.008629
      6          1           0       -2.660250   -0.504390    0.025868
      7          7           0        0.156324    1.356215    0.003751
      8          7           0        2.152024    0.083879   -0.076106
      9          1           0        2.641637    0.948989    0.125364
     10          1           0        2.563692   -0.723881    0.374182
 ---------------------------------------------------------------------

 SCF Done:  E(UB3LYP) =  -624.384608232     A.U. after   34 cycles

 The electronic state is 2-A.
 Alpha  occ. eigenvalues --  -88.76712 -14.20097 -14.18325 -10.13742 -10.08165
 Alpha  occ. eigenvalues --  -10.06948  -7.82679  -5.79090  -5.78763  -5.78352
 Alpha  occ. eigenvalues --   -0.83153  -0.75076  -0.65040  -0.58109  -0.45572
 Alpha  occ. eigenvalues --   -0.42815  -0.37012  -0.35559  -0.30798  -0.27394
 Alpha  occ. eigenvalues --   -0.26332  -0.22102  -0.17535  -0.13758  -0.13502
 Alpha  occ. eigenvalues --   -0.07062   0.08380
 Alpha virt. eigenvalues --    0.10925   0.12398   0.12999   0.14410   0.15338
 Alpha virt. eigenvalues --    0.17347   0.17566   0.17700   0.19188   0.19685
 Alpha virt. eigenvalues --    0.20570   0.21026   0.21760   0.24315   0.25093

  Beta  occ. eigenvalues --  -88.76694 -14.19898 -14.18300 -10.13666 -10.08145
  Beta  occ. eigenvalues --  -10.06814  -7.82656  -5.79059  -5.78752  -5.78330
  Beta  occ. eigenvalues --   -0.83032  -0.74835  -0.64851  -0.57915  -0.45354
  Beta  occ. eigenvalues --   -0.42518  -0.36796  -0.35344  -0.30612  -0.27236
  Beta  occ. eigenvalues --   -0.26131  -0.21835  -0.17257  -0.13509  -0.13431
  Beta  occ. eigenvalues --   -0.06790
  Beta virt. eigenvalues --    0.11157   0.12676   0.12784   0.12996   0.15398
  Beta virt. eigenvalues --    0.15750   0.17248   0.17622   0.17912   0.19313
  Beta virt. eigenvalues --    0.20459   0.20898   0.21313   0.22418   0.24615

 Mulliken atomic charges:
              1
     1  C   -0.940578
     2  C   -0.453498
     3  C   -0.625597
     4  S   -0.208738
     5  H    0.149794
     6  H    0.180160
     7  N   -0.408703
     8  N    0.633920
     9  H    0.338769
    10  H    0.334471
 Sum of Mulliken atomic charges =  -1.00000

 Dipole moment (field-independent basis, Debye):
    X=             -5.9458    Y=              0.7670    Z=             -0.8043  Tot=              6.0488
 Quadrupole moment (field-independent basis, Debye-Ang):
   XX=            -72.1187   YY=            -63.7131   ZZ=            -58.7490
   XY=              2.8281   XZ=             -0.8659   YZ=              1.1142

 Summary of Natural Population Analysis:

                                       Natural Population
                Natural  -----------------------------------------------
    Atom  No    Charge         Core      Valence    Rydberg      Total
 -----------------------------------------------------------------------
      C    1    0.13261      0.99963     1.84502    0.02273     2.86739
      C    2   -0.03599      0.99952     2.02274    0.01373     3.03599
      C    3   -0.24102      0.99951     2.23029    0.01121     3.24102
      S    4    0.18566      4.99946     2.79381    0.02107     7.81434
      H    5    0.10968      0.00000     0.38996    0.00036     0.39032
      H    6    0.11929      0.00000     0.38042    0.00029     0.38071
      N    7   -0.28253      0.99966     2.76739    0.01549     3.78253
      N    8   -0.40828      0.99971     2.89011    0.01846     3.90828
      H    9    0.20747      0.00000     0.29090    0.00163     0.29253
      H   10    0.21310      0.00000     0.28371    0.00320     0.28690
 =======================================================================
   * Total *    0.00000      9.99749    15.89435    0.10816    26.00000

 Normal termination of Gaussian 09 at Wed Mar 14 21:57:06 2001.
