 Gaussian 09, Revision B.01,
 Gaussian 09:  EM64L-G09RevB.01 12-Aug-2010

 ----------------------------------------------------
 # opt freq=noraman b3lyp/6-31+g(d) geom=connectivity
 ----------------------------------------------------

 ------------
 Opt_thaizole
 ------------
 Symbolic Z-matrix:
 Charge =  0 Multiplicity = 1

 SCF Done:  E(RB3LYP) =  -569.038223436     A.U. after   13 cycles
 SCF Done:  E(RB3LYP) =  -569.054640565     A.U. after   14 cycles
 SCF Done:  E(RB3LYP) =  -569.056104284     A.U. after   14 cycles
 SCF Done:  E(RB3LYP) =  -569.056218900     A.U. after   14 cycles
 SCF Done:  E(RB3LYP) =  -569.056291835     A.U. after   14 cycles
 SCF Done:  E(RB3LYP) =  -569.056315347     A.U. after   14 cycles
 SCF Done:  E(RB3LYP) =  -569.056316575     A.U. after    9 cycles
 SCF Done:  E(RB3LYP) =  -569.056318836     A.U. after    9 cycles
 Optimization completed.
    -- Stationary point found.
 Normal termination of Gaussian 09 at Wed Aug 20 22:16:13 2014.

 ---------------------------------------------------------------------
 #N Geom=AllCheck Guess=TCheck SCRF=Check GenChk RB3LYP/6-31+G(d) Freq
 ---------------------------------------------------------------------

 Opt_thaizole
 ------------
 Redundant internal coordinates taken from checkpoint file:
 thiazole.chk
 Charge =  0 Multiplicity = 1

                         Standard orientation:
 ---------------------------------------------------------------------
 Center     Atomic      Atomic             Coordinates (Angstroms)
 Number     Number       Type             X           Y           Z
 ---------------------------------------------------------------------
      1          6           0       -0.028744   -1.208377   -0.000010
      2          6           0       -1.292868    0.595440    0.000037
      3          6           0       -0.077618    1.223201    0.000072
      4         16           0        1.192232    0.042978   -0.000030
      5          1           0        0.250836   -2.255605    0.000255
      6          1           0       -2.253066    1.098396   -0.000298
      7          1           0        0.134485    2.283817    0.000046
      8          7           0       -1.258941   -0.782264   -0.000017
 ---------------------------------------------------------------------

 SCF Done:  E(RB3LYP) =  -569.056318836     A.U. after    1 cycles

 The electronic state is 1-A.
 Alpha  occ. eigenvalues --  -88.93137 -14.35315 -10.26221 -10.23502 -10.23287
 Alpha  occ. eigenvalues --   -7.99194  -5.95570  -5.95225  -5.94939  -0.97484
 Alpha  occ. eigenvalues --   -0.81129  -0.75340  -0.60641  -0.58143  -0.51884
 Alpha  occ. eigenvalues --   -0.44167  -0.42589  -0.41884  -0.37900  -0.29642
 Alpha  occ. eigenvalues --   -0.28782  -0.26205
 Alpha virt. eigenvalues --   -0.04118  -0.00742   0.00692   0.02430   0.02660
 Alpha virt. eigenvalues --    0.03687   0.04587   0.05471   0.05898   0.07434
 Alpha virt. eigenvalues --    0.08618   0.09639   0.09676   0.11249   0.12963

 Mulliken atomic charges:
              1
     1  C   -0.213705
     2  C   -0.206763
     3  C   -0.242655
     4  S    0.180503
     5  H    0.223538
     6  H    0.194959
     7  H    0.226698
     8  N   -0.162575
 Sum of Mulliken atomic charges =   0.00000

 Dipole moment (field-independent basis, Debye):
    X=              1.2506    Y=              1.0861    Z=             -0.0001  Tot=              1.6564
 Quadrupole moment (field-independent basis, Debye-Ang):
   XX=            -38.0558   YY=            -31.7058   ZZ=            -38.8092
   XY=             -3.8373   XZ=              0.0006   YZ=             -0.0009

  Exact polarizability:  67.874   0.752  62.210   0.000   0.000  36.271
 Approx polarizability: 121.695   6.074 104.499  -0.001   0.002  52.063

                     1                      2                      3
                     A                      A                      A
 Frequencies --   468.9338               613.4949               614.9529
 Red. masses --     4.4117                 4.1925                11.7377
 Frc consts  --     0.5716                 0.9297                 2.6153
 IR Inten    --     0.0294                17.9865                 2.1887

                     4                      5                      6
                     A                      A                      A
 Frequencies --   725.1829               742.8832               803.4129
 Red. masses --     1.2397                 8.6077                 1.1817
 Frc consts  --     0.3841                 2.7988                 0.4494
 IR Inten    --    22.0160                 0.2260                58.2686

                     7                      8                      9
                     A                      A                      A
 Frequencies --   864.1084               887.9751               900.9726
 Red. masses --     4.5903                 4.9117                 1.3355
 Frc consts  --     2.0194                 2.2819                 0.6387
 IR Inten    --    50.7306                 4.1110                 0.4368

                    10                     11                     12
                     A                      A                      A
 Frequencies --  1074.4444              1161.2981              1275.1072
 Red. masses --     1.6682                 1.5009                 1.2227
 Frc consts  --     1.1346                 1.1926                 1.1713
 IR Inten    --     9.0023                 6.8507                12.6665

                    13                     14                     15
                     A                      A                      A
 Frequencies --  1365.5005              1448.6683              1536.4973
 Red. masses --     1.9959                 6.5836                 4.9149
 Frc consts  --     2.1927                 8.1406                 6.8364
 IR Inten    --     2.7413                29.9843                31.1063

                    16                     17                     18
                     A                      A                      A
 Frequencies --  3240.8273              3249.5161              3280.2656
 Red. masses --     1.0907                 1.0940                 1.0984
 Frc consts  --     6.7491                 6.8062                 6.9638
 IR Inten    --     4.6119                 0.0808                 1.1063

 - Thermochemistry -
 -------------------
 Temperature   298.150 Kelvin.  Pressure   1.00000 Atm.
 Atom     1 has atomic number  6 and mass  12.00000

 Molecular mass:    84.99862 amu.
 Principal axes and moments of inertia in atomic units:
                           1         2         3
     Eigenvalues --   213.26071 332.69588 545.95659
           X            0.99662  -0.08213   0.00001
           Y            0.08213   0.99662  -0.00001
           Z           -0.00001   0.00001   1.00000
 This molecule is an asymmetric top.
 Rotational symmetry number  1.
 Rotational temperatures (Kelvin)      0.40614     0.26034     0.15865
 Rotational constants (GHZ):           8.46261     5.42460     3.30565
 Zero-point vibrational energy     145071.4 (Joules/Mol)
                                   34.67289 (Kcal/Mol)
 Warning -- explicit consideration of   3 degrees of freedom as
           vibrations may cause significant error
 Vibrational temperatures:    674.69   882.68   884.78  1043.38  1068.84
          (Kelvin)           1155.93  1243.26  1277.60  1296.30  1545.88
                             1670.85  1834.59  1964.65  2084.31  2210.67
                             4662.82  4675.32  4719.56

 Zero-point correction=                           0.055255 (Hartree/Particle)
 Thermal correction to Energy=                    0.059167
 Thermal correction to Enthalpy=                  0.060112
 Thermal correction to Gibbs Free Energy=         0.028102
 Sum of electronic and zero-point Energies=           -569.001064
 Sum of electronic and thermal Energies=              -568.997151
 Sum of electronic and thermal Enthalpies=            -568.996207
 Sum of electronic and thermal Free Energies=         -569.028217

                     E (Thermal)             CV                S
                      KCal/Mol        Cal/Mol-Kelvin    Cal/Mol-Kelvin
 Total                   37.128             13.996             67.371
 Electronic               0.000              0.000              0.000
 Translational            0.889              2.981             39.234
 Rotational               0.889              2.981             25.163
 Vibrational             35.351              8.035              2.974
 Vibration     1          0.826              1.319              0.741
 Vibration     2          0.973              1.003              0.427
 Vibration     3          0.974              1.000              0.425

 Optimization completed.
    -- Stationary point found.
 Normal termination of Gaussian 09 at Wed Aug 20 22:16:36 2014.
