 Gaussian 09, Revision B.01,
 Gaussian 09:  EM64L-G09RevB.01 12-Aug-2010

 -----------------------------------
 # b3lyp/6-31+g(d) geom=connectivity
 -----------------------------------

 ----------
 Thiazole-1
 ----------
 Symbolic Z-matrix:
 Charge = -1 Multiplicity = 2

                         Standard orientation:
 ---------------------------------------------------------------------
 Center     Atomic      Atomic             Coordinates (Angstroms)
 Number     Number       Type             X           Y           Z
 ---------------------------------------------------------------------
      1          6           0       -0.028743   -1.208377   -0.000010
      2          6           0       -1.292868    0.595440    0.000037
      3          6           0       -0.077619    1.223201    0.000072
      4         16           0        1.192232    0.042979   -0.000030
      5          1           0        0.250837   -2.255605    0.000255
      6          1           0       -2.253066    1.098395   -0.000298
      7          1           0        0.134484    2.283817    0.000046
      8          7           0       -1.258941   -0.782264   -0.000017
 ---------------------------------------------------------------------

 SCF Done:  E(UB3LYP) =  -569.020932776     A.U. after   32 cycles

 The electronic state is 2-A.
 Alpha  occ. eigenvalues --  -88.70485 -14.12966 -10.01870 -10.01753 -10.00387
 Alpha  occ. eigenvalues --   -7.76592  -5.72992  -5.72669  -5.72337  -0.75228
 Alpha  occ. eigenvalues --   -0.59205  -0.53784  -0.39268  -0.36913  -0.30707
 Alpha  occ. eigenvalues --   -0.22915  -0.20958  -0.20902  -0.16826  -0.09043
 Alpha  occ. eigenvalues --   -0.07724  -0.06066   0.10865
 Alpha virt. eigenvalues --    0.14246   0.15008   0.15943   0.17099   0.18655
 Alpha virt. eigenvalues --    0.18774   0.20179   0.21299   0.22237   0.22534
 Alpha virt. eigenvalues --    0.23219   0.24862   0.25831   0.27183   0.27658

  Beta  occ. eigenvalues --  -88.70406 -14.12856 -10.01843 -10.01133  -9.99932
  Beta  occ. eigenvalues --   -7.76515  -5.72966  -5.72642  -5.72047  -0.74671
  Beta  occ. eigenvalues --   -0.58610  -0.53004  -0.38343  -0.36337  -0.30364
  Beta  occ. eigenvalues --   -0.22602  -0.20620  -0.19130  -0.16291  -0.07480
  Beta  occ. eigenvalues --   -0.07326  -0.03385
  Beta virt. eigenvalues --    0.14243   0.15012   0.15870   0.17062   0.17877
  Beta virt. eigenvalues --    0.18755   0.18843   0.20473   0.21247   0.22413
  Beta virt. eigenvalues --    0.22538   0.23100   0.26052   0.26769   0.27288

 Mulliken atomic charges:
              1
     1  C   -0.415726
     2  C   -0.230743
     3  C   -0.407285
     4  S   -0.102187
     5  H    0.146128
     6  H    0.119827
     7  H    0.151136
     8  N   -0.261151
 Sum of Mulliken atomic charges =  -1.00000

 Dipole moment (field-independent basis, Debye):
    X=              1.0339    Y=              1.2829    Z=             -0.0002  Tot=              1.6476
 Quadrupole moment (field-independent basis, Debye-Ang):
   XX=            -51.7160   YY=            -44.8043   ZZ=            -47.1058
   XY=             -3.7848   XZ=             -0.0011   YZ=             -0.0002

 Normal termination of Gaussian 09 at Thu Jun 11 20:05:19 2015.
