 Gaussian 09, Revision B.01,
 Gaussian 09:  EM64L-G09RevB.01 12-Aug-2010

 -----------------------------------
 # b3lyp/6-31+g(d) geom=connectivity
 -----------------------------------

 ----------
 Thiazole+1
 ----------
 Symbolic Z-matrix:
 Charge =  1 Multiplicity = 2

                         Standard orientation:
 ---------------------------------------------------------------------
 Center     Atomic      Atomic             Coordinates (Angstroms)
 Number     Number       Type             X           Y           Z
 ---------------------------------------------------------------------
      1          6           0       -0.028743   -1.208377   -0.000010
      2          6           0       -1.292868    0.595440    0.000037
      3          6           0       -0.077619    1.223201    0.000072
      4         16           0        1.192232    0.042979   -0.000030
      5          1           0        0.250837   -2.255605    0.000255
      6          1           0       -2.253066    1.098395   -0.000298
      7          1           0        0.134484    2.283817    0.000046
      8          7           0       -1.258941   -0.782264   -0.000017
 ---------------------------------------------------------------------

 SCF Done:  E(UB3LYP) =  -568.707867662     A.U. after   19 cycles

 The electronic state is 2-A.
 Alpha  occ. eigenvalues --  -89.17878 -14.58813 -10.52272 -10.51282 -10.51059
 Alpha  occ. eigenvalues --   -8.23818  -6.20165  -6.19769  -6.19676  -1.23041
 Alpha  occ. eigenvalues --   -1.06323  -1.01731  -0.85499  -0.82860  -0.76577
 Alpha  occ. eigenvalues --   -0.68306  -0.67621  -0.66930  -0.62028  -0.54098
 Alpha  occ. eigenvalues --   -0.52861  -0.51393
 Alpha virt. eigenvalues --   -0.29405  -0.22167  -0.21740  -0.15663  -0.14709
 Alpha virt. eigenvalues --   -0.12663  -0.11335  -0.10943  -0.10203  -0.08728
 Alpha virt. eigenvalues --   -0.06260  -0.05973  -0.05361  -0.04015  -0.03153

  Beta  occ. eigenvalues --  -89.17847 -14.59009 -10.51719 -10.50755 -10.50510
  Beta  occ. eigenvalues --   -8.23787  -6.20166  -6.19771  -6.19534  -1.22354
  Beta  occ. eigenvalues --   -1.05672  -0.99841  -0.84634  -0.81959  -0.76153
  Beta  occ. eigenvalues --   -0.67961  -0.66512  -0.64517  -0.61619  -0.52810
  Beta  occ. eigenvalues --   -0.51480
  Beta virt. eigenvalues --   -0.43564  -0.25791  -0.21686  -0.19071  -0.15439
  Beta virt. eigenvalues --   -0.14357  -0.12506  -0.11108  -0.10741  -0.09924
  Beta virt. eigenvalues --   -0.08662  -0.05843  -0.05829  -0.05064  -0.03848

 Mulliken atomic charges:
              1
     1  C   -0.097915
     2  C   -0.120337
     3  C   -0.073137
     4  S    0.407704
     5  H    0.316155
     6  H    0.297855
     7  H    0.325271
     8  N   -0.055597
 Sum of Mulliken atomic charges =   1.00000

 Dipole moment (field-independent basis, Debye):
    X=              0.4882    Y=              1.7761    Z=              0.0000  Tot=              1.8420
 Quadrupole moment (field-independent basis, Debye-Ang):
   XX=            -28.3208   YY=            -21.2254   ZZ=            -33.7201
   XY=             -5.2169   XZ=              0.0003   YZ=             -0.0007

 Normal termination of Gaussian 09 at Thu Jun 11 20:03:59 2015.
