 Gaussian 09, Revision B.01,
 Gaussian 09:  EM64L-G09RevB.01 12-Aug-2010

 -------------------------
 # b3lyp/6-31+g(d) pop=nbo
 -------------------------

 ----
 TZ+1
 ----
 Symbolic Z-matrix:
 Charge =  1 Multiplicity = 2

                         Standard orientation:
 ---------------------------------------------------------------------
 Center     Atomic      Atomic             Coordinates (Angstroms)
 Number     Number       Type             X           Y           Z
 ---------------------------------------------------------------------
      1          6           0        0.028965   -1.208460    0.000719
      2          6           0        1.292481    0.595784    0.000343
      3          6           0        0.077181    1.223599    0.000030
      4         16           0       -1.191905    0.042668   -0.000128
      5          1           0        2.252746    1.098515    0.000422
      6          1           0       -0.135886    2.284053   -0.000105
      7          7           0        1.258973   -0.782207   -0.000702
      8          1           0       -0.250951   -2.255346    0.000096
 ---------------------------------------------------------------------

 SCF Done:  E(UB3LYP) =  -568.707837136     A.U. after   21 cycles

 The electronic state is 2-A.
 Alpha  occ. eigenvalues --  -89.17879 -14.58811 -10.52265 -10.51283 -10.51066
 Alpha  occ. eigenvalues --   -8.23820  -6.20167  -6.19770  -6.19679  -1.23040
 Alpha  occ. eigenvalues --   -1.06326  -1.01732  -0.85496  -0.82868  -0.76579
 Alpha  occ. eigenvalues --   -0.68306  -0.67621  -0.66937  -0.62023  -0.54099
 Alpha  occ. eigenvalues --   -0.52863  -0.51393
 Alpha virt. eigenvalues --   -0.29401  -0.22160  -0.21744  -0.15664  -0.14706
 Alpha virt. eigenvalues --   -0.12663  -0.11334  -0.10946  -0.10204  -0.08732
 Alpha virt. eigenvalues --   -0.06260  -0.05973  -0.05361  -0.04013  -0.03152

  Beta  occ. eigenvalues --  -89.17848 -14.59007 -10.51713 -10.50757 -10.50515
  Beta  occ. eigenvalues --   -8.23788  -6.20168  -6.19772  -6.19535  -1.22354
  Beta  occ. eigenvalues --   -1.05676  -0.99842  -0.84631  -0.81968  -0.76156
  Beta  occ. eigenvalues --   -0.67961  -0.66520  -0.64518  -0.61614  -0.52810
  Beta  occ. eigenvalues --   -0.51480
  Beta virt. eigenvalues --   -0.43568  -0.25788  -0.21679  -0.19077  -0.15440
  Beta virt. eigenvalues --   -0.14354  -0.12506  -0.11107  -0.10744  -0.09924
  Beta virt. eigenvalues --   -0.08665  -0.05843  -0.05829  -0.05064  -0.03846

 Mulliken atomic charges:
              1
     1  C   -0.097820
     2  C   -0.120467
     3  C   -0.073109
     4  S    0.407739
     5  H    0.297852
     6  H    0.325356
     7  N   -0.055706
     8  H    0.316154
 Sum of Mulliken atomic charges =   1.00000

 Dipole moment (field-independent basis, Debye):
    X=             -0.4899    Y=              1.7773    Z=              0.0015  Tot=              1.8435
 Quadrupole moment (field-independent basis, Debye-Ang):
   XX=            -28.3256   YY=            -21.2232   ZZ=            -33.7192
   XY=              5.2142   XZ=              0.0041   YZ=             -0.0023

 Summary of Natural Population Analysis:

                                       Natural Population
                Natural  -----------------------------------------------
    Atom  No    Charge         Core      Valence    Rydberg      Total
 -----------------------------------------------------------------------
      C    1    0.19172      0.99970     1.79477    0.01381     2.80828
      C    2    0.25082      0.99956     1.73759    0.01202     2.74918
      C    3    0.03385      0.99957     1.95775    0.00883     2.96615
      S    4    0.33768      4.99950     2.64435    0.01847     7.66232
      H    5    0.14371      0.00000     0.35610    0.00019     0.35629
      H    6    0.15539      0.00000     0.34429    0.00032     0.34461
      N    7   -0.25937      0.99972     2.74482    0.01483     3.75937
      H    8    0.14621      0.00000     0.35358    0.00021     0.35379
 =======================================================================
   * Total *    1.00000      8.99806    11.93326    0.06868    21.00000

 Normal termination of Gaussian 09 at Wed Mar 14 22:07:52 2001.
