 Gaussian 09, Revision B.01,
 Gaussian 09:  EM64L-G09RevB.01 12-Aug-2010

 -------------------------
 # b3lyp/6-31+g(d) pop=nbo
 -------------------------

 ----
 TZ-1
 ----
 Symbolic Z-matrix:
 Charge = -1 Multiplicity = 2

                         Standard orientation:
 ---------------------------------------------------------------------
 Center     Atomic      Atomic             Coordinates (Angstroms)
 Number     Number       Type             X           Y           Z
 ---------------------------------------------------------------------
      1          6           0        0.028965   -1.208460    0.000719
      2          6           0        1.292481    0.595784    0.000343
      3          6           0        0.077181    1.223599    0.000030
      4         16           0       -1.191905    0.042668   -0.000128
      5          1           0        2.252746    1.098515    0.000422
      6          1           0       -0.135886    2.284053   -0.000105
      7          7           0        1.258973   -0.782207   -0.000702
      8          1           0       -0.250951   -2.255346    0.000096
 ---------------------------------------------------------------------

 SCF Done:  E(UB3LYP) =  -569.020893557     A.U. after   32 cycles

 The electronic state is 2-A.
 Alpha  occ. eigenvalues --  -88.70484 -14.12973 -10.01876 -10.01755 -10.00394
 Alpha  occ. eigenvalues --   -7.76593  -5.72993  -5.72670  -5.72337  -0.75233
 Alpha  occ. eigenvalues --   -0.59211  -0.53788  -0.39269  -0.36923  -0.30713
 Alpha  occ. eigenvalues --   -0.22919  -0.20969  -0.20907  -0.16822  -0.09045
 Alpha  occ. eigenvalues --   -0.07729  -0.06071   0.10867
 Alpha virt. eigenvalues --    0.14243   0.15006   0.15942   0.17098   0.18654
 Alpha virt. eigenvalues --    0.18773   0.20176   0.21299   0.22236   0.22531
 Alpha virt. eigenvalues --    0.23218   0.24859   0.25832   0.27183   0.27653

  Beta  occ. eigenvalues --  -88.70406 -14.12864 -10.01848 -10.01135  -9.99939
  Beta  occ. eigenvalues --   -7.76516  -5.72967  -5.72642  -5.72048  -0.74677
  Beta  occ. eigenvalues --   -0.58617  -0.53009  -0.38345  -0.36348  -0.30369
  Beta  occ. eigenvalues --   -0.22606  -0.20631  -0.19135  -0.16287  -0.07486
  Beta  occ. eigenvalues --   -0.07329  -0.03392
  Beta virt. eigenvalues --    0.14240   0.15010   0.15869   0.17062   0.17876
  Beta virt. eigenvalues --    0.18755   0.18842   0.20470   0.21247   0.22412
  Beta virt. eigenvalues --    0.22534   0.23099   0.26052   0.26764   0.27289

 Mulliken atomic charges:
              1
     1  C   -0.414517
     2  C   -0.231553
     3  C   -0.406080
     4  S   -0.104101
     5  H    0.119859
     6  H    0.151291
     7  N   -0.261107
     8  H    0.146208
 Sum of Mulliken atomic charges =  -1.00000

 Dipole moment (field-independent basis, Debye):
    X=             -1.0350    Y=              1.2796    Z=             -0.0009  Tot=              1.6458
 Quadrupole moment (field-independent basis, Debye-Ang):
   XX=            -51.7245   YY=            -44.8141   ZZ=            -47.1094
   XY=              3.7814   XZ=              0.0556   YZ=              0.0005

 Summary of Natural Population Analysis:

                                       Natural Population
                Natural  -----------------------------------------------
    Atom  No    Charge         Core      Valence    Rydberg      Total
 -----------------------------------------------------------------------
      C    1    0.01532      0.99971     1.96526    0.01971     2.98468
      C    2   -0.05823      0.99953     2.04282    0.01588     3.05823
      C    3   -0.17615      0.99953     2.16403    0.01259     3.17615
      S    4    0.17252      4.99950     2.80177    0.02621     7.82748
      H    5    0.09916      0.00000     0.40033    0.00050     0.40084
      H    6    0.10694      0.00000     0.39256    0.00050     0.39306
      N    7   -0.25406      0.99970     2.73726    0.01711     3.75406
      H    8    0.09449      0.00000     0.40513    0.00038     0.40551
 =======================================================================
   * Total *    0.00000      8.99797    12.90915    0.09288    22.00000

 Normal termination of Gaussian 09 at Wed Mar 14 22:10:03 2001.
