 Gaussian 09, Revision B.01,
 Gaussian 09:  EM64L-G09RevB.01 12-Aug-2010

 ------------------------------------------
 # opt freq=noraman b3lyp/6-31+g(d) pop=nbo
 ------------------------------------------

 ---
 ATZ
 ---
 Symbolic Z-matrix:
 Charge =  0 Multiplicity = 1

 SCF Done:  E(RB3LYP) =  -569.055719889     A.U. after   13 cycles
 SCF Done:  E(RB3LYP) =  -569.056191759     A.U. after   14 cycles
 SCF Done:  E(RB3LYP) =  -569.056069779     A.U. after   14 cycles
 SCF Done:  E(RB3LYP) =  -569.056298825     A.U. after   14 cycles
 SCF Done:  E(RB3LYP) =  -569.056315037     A.U. after   14 cycles
 SCF Done:  E(RB3LYP) =  -569.056318099     A.U. after   10 cycles
 Optimization completed.
    -- Stationary point found.
 Normal termination of Gaussian 09 at Thu Feb 25 21:19:28 2021.

 ---------------------------------------------------------------------
 #N Geom=AllCheck Guess=TCheck SCRF=Check GenChk RB3LYP/6-31+G(d) Freq
 ---------------------------------------------------------------------

 ATZ
 ---
 Redundant internal coordinates taken from checkpoint file:
 ATZ.chk
 Charge =  0 Multiplicity = 1

                         Standard orientation:
 ---------------------------------------------------------------------
 Center     Atomic      Atomic             Coordinates (Angstroms)
 Number     Number       Type             X           Y           Z
 ---------------------------------------------------------------------
      1          6           0        0.028965   -1.208460    0.000719
      2          6           0        1.292481    0.595784    0.000343
      3          6           0        0.077181    1.223599    0.000030
      4         16           0       -1.191905    0.042668   -0.000128
      5          1           0        2.252746    1.098514    0.000422
      6          1           0       -0.135885    2.284053   -0.000105
      7          7           0        1.258973   -0.782207   -0.000702
      8          1           0       -0.250952   -2.255346    0.000096
 ---------------------------------------------------------------------

 SCF Done:  E(RB3LYP) =  -569.056318099     A.U. after    1 cycles

 The electronic state is 1-A.
 Alpha  occ. eigenvalues --  -88.93133 -14.35316 -10.26218 -10.23506 -10.23290
 Alpha  occ. eigenvalues --   -7.99190  -5.95566  -5.95221  -5.94936  -0.97484
 Alpha  occ. eigenvalues --   -0.81132  -0.75341  -0.60639  -0.58151  -0.51886
 Alpha  occ. eigenvalues --   -0.44167  -0.42597  -0.41885  -0.37892  -0.29641
 Alpha  occ. eigenvalues --   -0.28783  -0.26207
 Alpha virt. eigenvalues --   -0.04115  -0.00737   0.00692   0.02426   0.02662
 Alpha virt. eigenvalues --    0.03688   0.04587   0.05470   0.05899   0.07432
 Alpha virt. eigenvalues --    0.08619   0.09639   0.09677   0.11251   0.12964

 Mulliken atomic charges:
              1
     1  C   -0.213510
     2  C   -0.207006
     3  C   -0.242510
     4  S    0.180389
     5  H    0.194949
     6  H    0.226786
     7  N   -0.162660
     8  H    0.223562
 Sum of Mulliken atomic charges =   0.00000

 Dipole moment (field-independent basis, Debye):
    X=             -1.2512    Y=              1.0862    Z=              0.0004  Tot=              1.6569
 Quadrupole moment (field-independent basis, Debye-Ang):
   XX=            -38.0614   YY=            -31.7013   ZZ=            -38.8086
   XY=              3.8340   XZ=              0.0039   YZ=             -0.0020

  Exact polarizability:  67.864  -0.754  62.205  -0.001  -0.003  36.269
 Approx polarizability: 121.665  -6.077 104.493  -0.003  -0.018  52.061

 Summary of Natural Population Analysis:

                                       Natural Population
                Natural  -----------------------------------------------
    Atom  No    Charge         Core      Valence    Rydberg      Total
 -----------------------------------------------------------------------
      C    1   -0.17755      1.99942     4.14708    0.03106     6.17755
      C    2   -0.07587      1.99908     4.05041    0.02638     6.07587
      C    3   -0.47955      1.99909     4.46233    0.01812     6.47955
      S    4    0.41770      9.99902     5.54139    0.04188    15.58230
      H    5    0.24754      0.00000     0.75194    0.00052     0.75246
      H    6    0.27135      0.00000     0.72801    0.00064     0.72865
      N    7   -0.45756      1.99942     5.42814    0.03001     7.45756
      H    8    0.25394      0.00000     0.74565    0.00041     0.74606
 =======================================================================
   * Total *    0.00000     17.99603    25.85495    0.14903    44.00000

                     1                      2                      3
                     A                      A                      A
 Frequencies --   468.8676               613.4067               615.1763
 Red. masses --     4.4087                 4.1872                11.7279
 Frc consts  --     0.5710                 0.9283                 2.6150
 IR Inten    --     0.0280                18.0166                 2.1772

                     4                      5                      6
                     A                      A                      A
 Frequencies --   725.1993               743.1840               802.4128
 Red. masses --     1.2398                 8.6130                 1.1821
 Frc consts  --     0.3842                 2.8028                 0.4484
 IR Inten    --    21.7193                 0.2247                58.5356

                     7                      8                      9
                     A                      A                      A
 Frequencies --   864.1820               887.9486               900.8138
 Red. masses --     4.5890                 4.9122                 1.3358
 Frc consts  --     2.0192                 2.2819                 0.6387
 IR Inten    --    50.6168                 4.1591                 0.4501

                    10                     11                     12
                     A                      A                      A
 Frequencies --  1073.9962              1160.9545              1274.7171
 Red. masses --     1.6716                 1.5001                 1.2230
 Frc consts  --     1.1360                 1.1913                 1.1709
 IR Inten    --     8.9893                 6.8176                12.6850

                    13                     14                     15
                     A                      A                      A
 Frequencies --  1365.0073              1448.7774              1536.6323
 Red. masses --     1.9915                 6.5662                 4.9264
 Frc consts  --     2.1863                 8.1202                 6.8536
 IR Inten    --     2.7316                29.6489                31.4742

                    16                     17                     18
                     A                      A                      A
 Frequencies --  3241.2378              3251.7633              3280.0833
 Red. masses --     1.0906                 1.0939                 1.0985
 Frc consts  --     6.7508                 6.8152                 6.9635
 IR Inten    --     4.5922                 0.0952                 1.1205

 - Thermochemistry -
 -------------------
 Temperature   298.150 Kelvin.  Pressure   1.00000 Atm.
 Atom     1 has atomic number  6 and mass  12.00000

 Molecular mass:    84.99862 amu.
 Principal axes and moments of inertia in atomic units:
                           1         2         3
     Eigenvalues --   213.32231 332.56188 545.88408
           X            0.99662   0.08217   0.00001
           Y           -0.08217   0.99662   0.00000
           Z           -0.00001   0.00000   1.00000
 This molecule is an asymmetric top.
 Rotational symmetry number  1.
 Rotational temperatures (Kelvin)      0.40602     0.26044     0.15867
 Rotational constants (GHZ):           8.46016     5.42678     3.30609
 Zero-point vibrational energy     145073.3 (Joules/Mol)
                                   34.67335 (Kcal/Mol)
 Warning -- explicit consideration of   3 degrees of freedom as
           vibrations may cause significant error
 Vibrational temperatures:    674.59   882.55   885.10  1043.40  1069.27
          (Kelvin)           1154.49  1243.36  1277.56  1296.07  1545.24
                             1670.35  1834.03  1963.94  2084.46  2210.87
                             4663.41  4678.56  4719.30

 Zero-point correction=                           0.055255 (Hartree/Particle)
 Thermal correction to Energy=                    0.059168
 Thermal correction to Enthalpy=                  0.060113
 Thermal correction to Gibbs Free Energy=         0.028102
 Sum of electronic and zero-point Energies=           -569.001063
 Sum of electronic and thermal Energies=              -568.997150
 Sum of electronic and thermal Enthalpies=            -568.996205
 Sum of electronic and thermal Free Energies=         -569.028216

                     E (Thermal)             CV                S
                      KCal/Mol        Cal/Mol-Kelvin    Cal/Mol-Kelvin
 Total                   37.129             13.998             67.371
 Electronic               0.000              0.000              0.000
 Translational            0.889              2.981             39.234
 Rotational               0.889              2.981             25.163
 Vibrational             35.351              8.037              2.974
 Vibration     1          0.826              1.319              0.741
 Vibration     2          0.973              1.003              0.427
 Vibration     3          0.975              1.000              0.424

 Optimization completed.
    -- Stationary point found.
 Normal termination of Gaussian 09 at Thu Feb 25 21:19:49 2021.
